# vtk DataFile Version 2.0
One line for information on the data set
ASCII

DATASET UNSTRUCTURED_GRID
POINTS     8 float
   0.  0.  0.
  10.  0.  0.
  10.  5.  0.
   0.  5.  0.
   0.  0.  1.
  10.  0.  1.
  10.  5.  1.
   0.  5.  1.

CELLS 2 10
 4 0 1 2 3
 4 4 5 6 7

CELL_TYPES 2
9
9

POINT_DATA 8
SCALARS temp float 1
LOOKUP_TABLE default
20 10 10 20 20 10 10 20
